data_LTA4A

_audit_creation_method RASPA-1.0
_audit_creation_date 2024-8-14
_audit_author_name 'David Dubbeldam'

_citation_author_name        'J.J. Pluth and J.V. Smith'
_citation_title              'Accurate redetermination of crystal structure of dehydrated zeolite A. Absence of near zero coordination of sodium. Refinement of silicon,aluminum-ordered superstructure'
_citation_journal_abbrev     'J. Am. Chem. Soc.'
_citation_journal_volume     102
_citation_journal_issue      14
_citation_page_first         4704
_citation_page_last          4708
_citation_year               1980

_cell_length_a    24.555
_cell_length_b    24.555
_cell_length_c    24.555
_cell_angle_alpha 90
_cell_angle_beta  90
_cell_angle_gamma 90
_cell_volume      14805.4

_symmetry_cell_setting          cubic
_symmetry_space_group_name_Hall 'P 1'
_symmetry_space_group_name_H-M  'P 1'
_symmetry_Int_Tables_number     1

_symmetry_equiv_pos_as_xyz 'x,y,z'

loop_
_atom_site_label
_atom_site_type_symbol
_atom_site_fract_x
_atom_site_fract_y
_atom_site_fract_z
_atom_site_charge
Si       Si     0.000000000000     0.093160000000     0.184990000000     0.78598    
Al       Al     0.000000000000     0.187150000000     0.090420000000     0.48598    
Oa       O      0.000000000000     0.113670000000     0.246630000000    -0.41384    
Oa       O      0.000000000000     0.144590000000     0.145910000000    -0.41384    
Oa       O      0.053790000000     0.058650000000     0.171520000000    -0.41384    
Si       Si     0.406840000000     0.000000000000     0.184990000000     0.78598    
Al       Al     0.312850000000     0.000000000000     0.090420000000     0.48598    
Oa       O      0.386330000000     0.000000000000     0.246630000000    -0.41384    
Oa       O      0.355410000000     0.000000000000     0.145910000000    -0.41384    
Oa       O      0.441350000000     0.053790000000     0.171520000000    -0.41384    
Si       Si     0.500000000000     0.406840000000     0.184990000000     0.78598    
Al       Al     0.500000000000     0.312850000000     0.090420000000     0.48598    
Oa       O      0.500000000000     0.386330000000     0.246630000000    -0.41384    
Oa       O      0.500000000000     0.355410000000     0.145910000000    -0.41384    
Oa       O      0.446210000000     0.441350000000     0.171520000000    -0.41384    
Si       Si     0.093160000000     0.500000000000     0.184990000000     0.78598    
Al       Al     0.187150000000     0.500000000000     0.090420000000     0.48598    
Oa       O      0.113670000000     0.500000000000     0.246630000000    -0.41384    
Oa       O      0.144590000000     0.500000000000     0.145910000000    -0.41384    
Oa       O      0.058650000000     0.446210000000     0.171520000000    -0.41384    
Si       Si     0.000000000000     0.906840000000     0.815010000000     0.78598    
Al       Al     0.000000000000     0.812850000000     0.909580000000     0.48598    
Oa       O      0.000000000000     0.886330000000     0.753370000000    -0.41384    
Oa       O      0.000000000000     0.855410000000     0.854090000000    -0.41384    
Oa       O      0.053790000000     0.941350000000     0.828480000000    -0.41384    
Si       Si     0.593160000000     0.000000000000     0.815010000000     0.78598    
Al       Al     0.687150000000     0.000000000000     0.909580000000     0.48598    
Oa       O      0.613670000000     0.000000000000     0.753370000000    -0.41384    
Oa       O      0.644590000000     0.000000000000     0.854090000000    -0.41384    
Oa       O      0.558650000000     0.053790000000     0.828480000000    -0.41384    
Si       Si     0.500000000000     0.593160000000     0.815010000000     0.78598    
Al       Al     0.500000000000     0.687150000000     0.909580000000     0.48598    
Oa       O      0.500000000000     0.613670000000     0.753370000000    -0.41384    
Oa       O      0.500000000000     0.644590000000     0.854090000000    -0.41384    
Oa       O      0.446210000000     0.558650000000     0.828480000000    -0.41384    
Si       Si     0.906840000000     0.500000000000     0.815010000000     0.78598    
Al       Al     0.812850000000     0.500000000000     0.909580000000     0.48598    
Oa       O      0.886330000000     0.500000000000     0.753370000000    -0.41384    
Oa       O      0.855410000000     0.500000000000     0.854090000000    -0.41384    
Oa       O      0.941350000000     0.446210000000     0.828480000000    -0.41384    
Si       Si     0.184990000000     0.000000000000     0.093160000000     0.78598    
Al       Al     0.090420000000     0.000000000000     0.187150000000     0.48598    
Oa       O      0.246630000000     0.000000000000     0.113670000000    -0.41384    
Oa       O      0.145910000000     0.000000000000     0.144590000000    -0.41384    
Oa       O      0.171520000000     0.053790000000     0.058650000000    -0.41384    
Si       Si     0.500000000000     0.184990000000     0.093160000000     0.78598    
Al       Al     0.500000000000     0.090420000000     0.187150000000     0.48598    
Oa       O      0.500000000000     0.246630000000     0.113670000000    -0.41384    
Oa       O      0.500000000000     0.145910000000     0.144590000000    -0.41384    
Oa       O      0.446210000000     0.171520000000     0.058650000000    -0.41384    
Si       Si     0.315010000000     0.500000000000     0.093160000000     0.78598    
Al       Al     0.409580000000     0.500000000000     0.187150000000     0.48598    
Oa       O      0.253370000000     0.500000000000     0.113670000000    -0.41384    
Oa       O      0.354090000000     0.500000000000     0.144590000000    -0.41384    
Oa       O      0.328480000000     0.446210000000     0.058650000000    -0.41384    
Si       Si     0.000000000000     0.315010000000     0.093160000000     0.78598    
Al       Al     0.000000000000     0.409580000000     0.187150000000     0.48598    
Oa       O      0.000000000000     0.253370000000     0.113670000000    -0.41384    
Oa       O      0.000000000000     0.354090000000     0.144590000000    -0.41384    
Oa       O      0.053790000000     0.328480000000     0.058650000000    -0.41384    
Si       Si     0.184990000000     0.000000000000     0.906840000000     0.78598    
Al       Al     0.090420000000     0.000000000000     0.812850000000     0.48598    
Oa       O      0.246630000000     0.000000000000     0.886330000000    -0.41384    
Oa       O      0.145910000000     0.000000000000     0.855410000000    -0.41384    
Oa       O      0.171520000000     0.946210000000     0.941350000000    -0.41384    
Si       Si     0.500000000000     0.184990000000     0.906840000000     0.78598    
Al       Al     0.500000000000     0.090420000000     0.812850000000     0.48598    
Oa       O      0.500000000000     0.246630000000     0.886330000000    -0.41384    
Oa       O      0.500000000000     0.145910000000     0.855410000000    -0.41384    
Oa       O      0.553790000000     0.171520000000     0.941350000000    -0.41384    
Si       Si     0.315010000000     0.500000000000     0.906840000000     0.78598    
Al       Al     0.409580000000     0.500000000000     0.812850000000     0.48598    
Oa       O      0.253370000000     0.500000000000     0.886330000000    -0.41384    
Oa       O      0.354090000000     0.500000000000     0.855410000000    -0.41384    
Oa       O      0.328480000000     0.553790000000     0.941350000000    -0.41384    
Si       Si     0.000000000000     0.315010000000     0.906840000000     0.78598    
Al       Al     0.000000000000     0.409580000000     0.812850000000     0.48598    
Oa       O      0.000000000000     0.253370000000     0.886330000000    -0.41384    
Oa       O      0.000000000000     0.354090000000     0.855410000000    -0.41384    
Oa       O      0.946210000000     0.328480000000     0.941350000000    -0.41384    
Si       Si     0.093160000000     0.184990000000     0.000000000000     0.78598    
Al       Al     0.187150000000     0.090420000000     0.000000000000     0.48598    
Oa       O      0.113670000000     0.246630000000     0.000000000000    -0.41384    
Oa       O      0.144590000000     0.145910000000     0.000000000000    -0.41384    
Oa       O      0.058650000000     0.171520000000     0.053790000000    -0.41384    
Si       Si     0.093160000000     0.315010000000     0.500000000000     0.78598    
Al       Al     0.187150000000     0.409580000000     0.500000000000     0.48598    
Oa       O      0.113670000000     0.253370000000     0.500000000000    -0.41384    
Oa       O      0.144590000000     0.354090000000     0.500000000000    -0.41384    
Oa       O      0.058650000000     0.328480000000     0.446210000000    -0.41384    
Si       Si     0.184990000000     0.093160000000     0.500000000000     0.78598    
Al       Al     0.090420000000     0.187150000000     0.500000000000     0.48598    
Oa       O      0.246630000000     0.113670000000     0.500000000000    -0.41384    
Oa       O      0.145910000000     0.144590000000     0.500000000000    -0.41384    
Oa       O      0.171520000000     0.058650000000     0.446210000000    -0.41384    
Si       Si     0.406840000000     0.184990000000     0.500000000000     0.78598    
Al       Al     0.312850000000     0.090420000000     0.500000000000     0.48598    
Oa       O      0.386330000000     0.246630000000     0.500000000000    -0.41384    
Oa       O      0.355410000000     0.145910000000     0.500000000000    -0.41384    
Oa       O      0.441350000000     0.171520000000     0.446210000000    -0.41384    
Si       Si     0.315010000000     0.906840000000     0.000000000000     0.78598    
Al       Al     0.409580000000     0.812850000000     0.000000000000     0.48598    
Oa       O      0.253370000000     0.886330000000     0.000000000000    -0.41384    
Oa       O      0.354090000000     0.855410000000     0.000000000000    -0.41384    
Oa       O      0.328480000000     0.941350000000     0.946210000000    -0.41384    
Si       Si     0.906840000000     0.815010000000     0.000000000000     0.78598    
Al       Al     0.812850000000     0.909580000000     0.000000000000     0.48598    
Oa       O      0.886330000000     0.753370000000     0.000000000000    -0.41384    
Oa       O      0.855410000000     0.854090000000     0.000000000000    -0.41384    
Oa       O      0.941350000000     0.828480000000     0.053790000000    -0.41384    
Si       Si     0.184990000000     0.906840000000     0.500000000000     0.78598    
Al       Al     0.090420000000     0.812850000000     0.500000000000     0.48598    
Oa       O      0.246630000000     0.886330000000     0.500000000000    -0.41384    
Oa       O      0.145910000000     0.855410000000     0.500000000000    -0.41384    
Oa       O      0.171520000000     0.941350000000     0.553790000000    -0.41384    
Si       Si     0.315010000000     0.593160000000     0.500000000000     0.78598    
Al       Al     0.409580000000     0.687150000000     0.500000000000     0.48598    
Oa       O      0.253370000000     0.613670000000     0.500000000000    -0.41384    
Oa       O      0.354090000000     0.644590000000     0.500000000000    -0.41384    
Oa       O      0.328480000000     0.558650000000     0.553790000000    -0.41384    
Oa       O      0.946210000000     0.941350000000     0.828480000000    -0.41384    
Oa       O      0.558650000000     0.946210000000     0.828480000000    -0.41384    
Oa       O      0.553790000000     0.558650000000     0.828480000000    -0.41384    
Oa       O      0.941350000000     0.553790000000     0.828480000000    -0.41384    
Oa       O      0.946210000000     0.058650000000     0.171520000000    -0.41384    
Oa       O      0.441350000000     0.946210000000     0.171520000000    -0.41384    
Oa       O      0.553790000000     0.441350000000     0.171520000000    -0.41384    
Oa       O      0.058650000000     0.553790000000     0.171520000000    -0.41384    
Si       Si     0.815010000000     0.000000000000     0.906840000000     0.78598    
Al       Al     0.909580000000     0.000000000000     0.812850000000     0.48598    
Oa       O      0.753370000000     0.000000000000     0.886330000000    -0.41384    
Oa       O      0.854090000000     0.000000000000     0.855410000000    -0.41384    
Oa       O      0.828480000000     0.946210000000     0.941350000000    -0.41384    
Si       Si     0.500000000000     0.815010000000     0.906840000000     0.78598    
Al       Al     0.500000000000     0.909580000000     0.812850000000     0.48598    
Oa       O      0.500000000000     0.753370000000     0.886330000000    -0.41384    
Oa       O      0.500000000000     0.854090000000     0.855410000000    -0.41384    
Oa       O      0.553790000000     0.828480000000     0.941350000000    -0.41384    
Si       Si     0.684990000000     0.500000000000     0.906840000000     0.78598    
Al       Al     0.590420000000     0.500000000000     0.812850000000     0.48598    
Oa       O      0.746630000000     0.500000000000     0.886330000000    -0.41384    
Oa       O      0.645910000000     0.500000000000     0.855410000000    -0.41384    
Oa       O      0.671520000000     0.553790000000     0.941350000000    -0.41384    
Si       Si     0.000000000000     0.684990000000     0.906840000000     0.78598    
Al       Al     0.000000000000     0.590420000000     0.812850000000     0.48598    
Oa       O      0.000000000000     0.746630000000     0.886330000000    -0.41384    
Oa       O      0.000000000000     0.645910000000     0.855410000000    -0.41384    
Oa       O      0.946210000000     0.671520000000     0.941350000000    -0.41384    
Si       Si     0.815010000000     0.000000000000     0.093160000000     0.78598    
Al       Al     0.909580000000     0.000000000000     0.187150000000     0.48598    
Oa       O      0.753370000000     0.000000000000     0.113670000000    -0.41384    
Oa       O      0.854090000000     0.000000000000     0.144590000000    -0.41384    
Oa       O      0.828480000000     0.053790000000     0.058650000000    -0.41384    
Si       Si     0.500000000000     0.815010000000     0.093160000000     0.78598    
Al       Al     0.500000000000     0.909580000000     0.187150000000     0.48598    
Oa       O      0.500000000000     0.753370000000     0.113670000000    -0.41384    
Oa       O      0.500000000000     0.854090000000     0.144590000000    -0.41384    
Oa       O      0.446210000000     0.828480000000     0.058650000000    -0.41384    
Si       Si     0.684990000000     0.500000000000     0.093160000000     0.78598    
Al       Al     0.590420000000     0.500000000000     0.187150000000     0.48598    
Oa       O      0.746630000000     0.500000000000     0.113670000000    -0.41384    
Oa       O      0.645910000000     0.500000000000     0.144590000000    -0.41384    
Oa       O      0.671520000000     0.446210000000     0.058650000000    -0.41384    
Si       Si     0.000000000000     0.684990000000     0.093160000000     0.78598    
Al       Al     0.000000000000     0.590420000000     0.187150000000     0.48598    
Oa       O      0.000000000000     0.746630000000     0.113670000000    -0.41384    
Oa       O      0.000000000000     0.645910000000     0.144590000000    -0.41384    
Oa       O      0.053790000000     0.671520000000     0.058650000000    -0.41384    
Oa       O      0.941350000000     0.828480000000     0.946210000000    -0.41384    
Si       Si     0.906840000000     0.684990000000     0.500000000000     0.78598    
Al       Al     0.812850000000     0.590420000000     0.500000000000     0.48598    
Oa       O      0.886330000000     0.746630000000     0.500000000000    -0.41384    
Oa       O      0.855410000000     0.645910000000     0.500000000000    -0.41384    
Oa       O      0.941350000000     0.671520000000     0.553790000000    -0.41384    
Si       Si     0.815010000000     0.906840000000     0.500000000000     0.78598    
Al       Al     0.909580000000     0.812850000000     0.500000000000     0.48598    
Oa       O      0.753370000000     0.886330000000     0.500000000000    -0.41384    
Oa       O      0.854090000000     0.855410000000     0.500000000000    -0.41384    
Oa       O      0.828480000000     0.941350000000     0.553790000000    -0.41384    
Si       Si     0.593160000000     0.815010000000     0.500000000000     0.78598    
Al       Al     0.687150000000     0.909580000000     0.500000000000     0.48598    
Oa       O      0.613670000000     0.753370000000     0.500000000000    -0.41384    
Oa       O      0.644590000000     0.854090000000     0.500000000000    -0.41384    
Oa       O      0.558650000000     0.828480000000     0.553790000000    -0.41384    
Si       Si     0.684990000000     0.093160000000     0.000000000000     0.78598    
Al       Al     0.590420000000     0.187150000000     0.000000000000     0.48598    
Oa       O      0.746630000000     0.113670000000     0.000000000000    -0.41384    
Oa       O      0.645910000000     0.144590000000     0.000000000000    -0.41384    
Oa       O      0.671520000000     0.058650000000     0.053790000000    -0.41384    
Oa       O      0.058650000000     0.171520000000     0.946210000000    -0.41384    
Si       Si     0.815010000000     0.093160000000     0.500000000000     0.78598    
Al       Al     0.909580000000     0.187150000000     0.500000000000     0.48598    
Oa       O      0.753370000000     0.113670000000     0.500000000000    -0.41384    
Oa       O      0.854090000000     0.144590000000     0.500000000000    -0.41384    
Oa       O      0.828480000000     0.058650000000     0.446210000000    -0.41384    
Si       Si     0.684990000000     0.406840000000     0.500000000000     0.78598    
Al       Al     0.590420000000     0.312850000000     0.500000000000     0.48598    
Oa       O      0.746630000000     0.386330000000     0.500000000000    -0.41384    
Oa       O      0.645910000000     0.355410000000     0.500000000000    -0.41384    
Oa       O      0.671520000000     0.441350000000     0.446210000000    -0.41384    
Si       Si     0.000000000000     0.593160000000     0.684990000000     0.78598    
Al       Al     0.000000000000     0.687150000000     0.590420000000     0.48598    
Oa       O      0.000000000000     0.613670000000     0.746630000000    -0.41384    
Oa       O      0.000000000000     0.644590000000     0.645910000000    -0.41384    
Oa       O      0.053790000000     0.558650000000     0.671520000000    -0.41384    
Si       Si     0.406840000000     0.500000000000     0.684990000000     0.78598    
Al       Al     0.312850000000     0.500000000000     0.590420000000     0.48598    
Oa       O      0.386330000000     0.500000000000     0.746630000000    -0.41384    
Oa       O      0.355410000000     0.500000000000     0.645910000000    -0.41384    
Oa       O      0.441350000000     0.553790000000     0.671520000000    -0.41384    
Si       Si     0.500000000000     0.906840000000     0.684990000000     0.78598    
Al       Al     0.500000000000     0.812850000000     0.590420000000     0.48598    
Oa       O      0.500000000000     0.886330000000     0.746630000000    -0.41384    
Oa       O      0.500000000000     0.855410000000     0.645910000000    -0.41384    
Oa       O      0.446210000000     0.941350000000     0.671520000000    -0.41384    
Si       Si     0.093160000000     0.000000000000     0.684990000000     0.78598    
Al       Al     0.187150000000     0.000000000000     0.590420000000     0.48598    
Oa       O      0.113670000000     0.000000000000     0.746630000000    -0.41384    
Oa       O      0.144590000000     0.000000000000     0.645910000000    -0.41384    
Oa       O      0.058650000000     0.946210000000     0.671520000000    -0.41384    
Si       Si     0.000000000000     0.406840000000     0.315010000000     0.78598    
Al       Al     0.000000000000     0.312850000000     0.409580000000     0.48598    
Oa       O      0.000000000000     0.386330000000     0.253370000000    -0.41384    
Oa       O      0.000000000000     0.355410000000     0.354090000000    -0.41384    
Oa       O      0.053790000000     0.441350000000     0.328480000000    -0.41384    
Si       Si     0.593160000000     0.500000000000     0.315010000000     0.78598    
Al       Al     0.687150000000     0.500000000000     0.409580000000     0.48598    
Oa       O      0.613670000000     0.500000000000     0.253370000000    -0.41384    
Oa       O      0.644590000000     0.500000000000     0.354090000000    -0.41384    
Oa       O      0.558650000000     0.553790000000     0.328480000000    -0.41384    
Si       Si     0.500000000000     0.093160000000     0.315010000000     0.78598    
Al       Al     0.500000000000     0.187150000000     0.409580000000     0.48598    
Oa       O      0.500000000000     0.113670000000     0.253370000000    -0.41384    
Oa       O      0.500000000000     0.144590000000     0.354090000000    -0.41384    
Oa       O      0.446210000000     0.058650000000     0.328480000000    -0.41384    
Si       Si     0.906840000000     0.000000000000     0.315010000000     0.78598    
Al       Al     0.812850000000     0.000000000000     0.409580000000     0.48598    
Oa       O      0.886330000000     0.000000000000     0.253370000000    -0.41384    
Oa       O      0.855410000000     0.000000000000     0.354090000000    -0.41384    
Oa       O      0.941350000000     0.946210000000     0.328480000000    -0.41384    
Si       Si     0.184990000000     0.500000000000     0.593160000000     0.78598    
Al       Al     0.090420000000     0.500000000000     0.687150000000     0.48598    
Oa       O      0.246630000000     0.500000000000     0.613670000000    -0.41384    
Oa       O      0.145910000000     0.500000000000     0.644590000000    -0.41384    
Oa       O      0.171520000000     0.553790000000     0.558650000000    -0.41384    
Si       Si     0.500000000000     0.684990000000     0.593160000000     0.78598    
Al       Al     0.500000000000     0.590420000000     0.687150000000     0.48598    
Oa       O      0.500000000000     0.746630000000     0.613670000000    -0.41384    
Oa       O      0.500000000000     0.645910000000     0.644590000000    -0.41384    
Oa       O      0.446210000000     0.671520000000     0.558650000000    -0.41384    
Si       Si     0.315010000000     0.000000000000     0.593160000000     0.78598    
Al       Al     0.409580000000     0.000000000000     0.687150000000     0.48598    
Oa       O      0.253370000000     0.000000000000     0.613670000000    -0.41384    
Oa       O      0.354090000000     0.000000000000     0.644590000000    -0.41384    
Oa       O      0.328480000000     0.946210000000     0.558650000000    -0.41384    
Si       Si     0.000000000000     0.815010000000     0.593160000000     0.78598    
Al       Al     0.000000000000     0.909580000000     0.687150000000     0.48598    
Oa       O      0.000000000000     0.753370000000     0.613670000000    -0.41384    
Oa       O      0.000000000000     0.854090000000     0.644590000000    -0.41384    
Oa       O      0.053790000000     0.828480000000     0.558650000000    -0.41384    
Si       Si     0.184990000000     0.500000000000     0.406840000000     0.78598    
Al       Al     0.090420000000     0.500000000000     0.312850000000     0.48598    
Oa       O      0.246630000000     0.500000000000     0.386330000000    -0.41384    
Oa       O      0.145910000000     0.500000000000     0.355410000000    -0.41384    
Oa       O      0.171520000000     0.446210000000     0.441350000000    -0.41384    
Si       Si     0.500000000000     0.684990000000     0.406840000000     0.78598    
Al       Al     0.500000000000     0.590420000000     0.312850000000     0.48598    
Oa       O      0.500000000000     0.746630000000     0.386330000000    -0.41384    
Oa       O      0.500000000000     0.645910000000     0.355410000000    -0.41384    
Oa       O      0.553790000000     0.671520000000     0.441350000000    -0.41384    
Si       Si     0.315010000000     0.000000000000     0.406840000000     0.78598    
Al       Al     0.409580000000     0.000000000000     0.312850000000     0.48598    
Oa       O      0.253370000000     0.000000000000     0.386330000000    -0.41384    
Oa       O      0.354090000000     0.000000000000     0.355410000000    -0.41384    
Oa       O      0.328480000000     0.053790000000     0.441350000000    -0.41384    
Si       Si     0.000000000000     0.815010000000     0.406840000000     0.78598    
Al       Al     0.000000000000     0.909580000000     0.312850000000     0.48598    
Oa       O      0.000000000000     0.753370000000     0.386330000000    -0.41384    
Oa       O      0.000000000000     0.854090000000     0.355410000000    -0.41384    
Oa       O      0.946210000000     0.828480000000     0.441350000000    -0.41384    
Si       Si     0.093160000000     0.684990000000     0.500000000000     0.78598    
Al       Al     0.187150000000     0.590420000000     0.500000000000     0.48598    
Oa       O      0.113670000000     0.746630000000     0.500000000000    -0.41384    
Oa       O      0.144590000000     0.645910000000     0.500000000000    -0.41384    
Oa       O      0.058650000000     0.671520000000     0.553790000000    -0.41384    
Si       Si     0.093160000000     0.815010000000     0.000000000000     0.78598    
Al       Al     0.187150000000     0.909580000000     0.000000000000     0.48598    
Oa       O      0.113670000000     0.753370000000     0.000000000000    -0.41384    
Oa       O      0.144590000000     0.854090000000     0.000000000000    -0.41384    
Oa       O      0.058650000000     0.828480000000     0.946210000000    -0.41384    
Si       Si     0.184990000000     0.593160000000     0.000000000000     0.78598    
Al       Al     0.090420000000     0.687150000000     0.000000000000     0.48598    
Oa       O      0.246630000000     0.613670000000     0.000000000000    -0.41384    
Oa       O      0.145910000000     0.644590000000     0.000000000000    -0.41384    
Oa       O      0.171520000000     0.558650000000     0.946210000000    -0.41384    
Si       Si     0.406840000000     0.684990000000     0.000000000000     0.78598    
Al       Al     0.312850000000     0.590420000000     0.000000000000     0.48598    
Oa       O      0.386330000000     0.746630000000     0.000000000000    -0.41384    
Oa       O      0.355410000000     0.645910000000     0.000000000000    -0.41384    
Oa       O      0.441350000000     0.671520000000     0.946210000000    -0.41384    
Si       Si     0.315010000000     0.406840000000     0.500000000000     0.78598    
Al       Al     0.409580000000     0.312850000000     0.500000000000     0.48598    
Oa       O      0.253370000000     0.386330000000     0.500000000000    -0.41384    
Oa       O      0.354090000000     0.355410000000     0.500000000000    -0.41384    
Oa       O      0.328480000000     0.441350000000     0.446210000000    -0.41384    
Si       Si     0.906840000000     0.315010000000     0.500000000000     0.78598    
Al       Al     0.812850000000     0.409580000000     0.500000000000     0.48598    
Oa       O      0.886330000000     0.253370000000     0.500000000000    -0.41384    
Oa       O      0.855410000000     0.354090000000     0.500000000000    -0.41384    
Oa       O      0.941350000000     0.328480000000     0.553790000000    -0.41384    
Si       Si     0.184990000000     0.406840000000     0.000000000000     0.78598    
Al       Al     0.090420000000     0.312850000000     0.000000000000     0.48598    
Oa       O      0.246630000000     0.386330000000     0.000000000000    -0.41384    
Oa       O      0.145910000000     0.355410000000     0.000000000000    -0.41384    
Oa       O      0.171520000000     0.441350000000     0.053790000000    -0.41384    
Si       Si     0.315010000000     0.093160000000     0.000000000000     0.78598    
Al       Al     0.409580000000     0.187150000000     0.000000000000     0.48598    
Oa       O      0.253370000000     0.113670000000     0.000000000000    -0.41384    
Oa       O      0.354090000000     0.144590000000     0.000000000000    -0.41384    
Oa       O      0.328480000000     0.058650000000     0.053790000000    -0.41384    
Oa       O      0.946210000000     0.441350000000     0.328480000000    -0.41384    
Oa       O      0.558650000000     0.446210000000     0.328480000000    -0.41384    
Oa       O      0.553790000000     0.058650000000     0.328480000000    -0.41384    
Oa       O      0.941350000000     0.053790000000     0.328480000000    -0.41384    
Oa       O      0.946210000000     0.558650000000     0.671520000000    -0.41384    
Oa       O      0.441350000000     0.446210000000     0.671520000000    -0.41384    
Oa       O      0.553790000000     0.941350000000     0.671520000000    -0.41384    
Oa       O      0.058650000000     0.053790000000     0.671520000000    -0.41384    
Si       Si     0.815010000000     0.500000000000     0.406840000000     0.78598    
Al       Al     0.909580000000     0.500000000000     0.312850000000     0.48598    
Oa       O      0.753370000000     0.500000000000     0.386330000000    -0.41384    
Oa       O      0.854090000000     0.500000000000     0.355410000000    -0.41384    
Oa       O      0.828480000000     0.446210000000     0.441350000000    -0.41384    
Si       Si     0.500000000000     0.315010000000     0.406840000000     0.78598    
Al       Al     0.500000000000     0.409580000000     0.312850000000     0.48598    
Oa       O      0.500000000000     0.253370000000     0.386330000000    -0.41384    
Oa       O      0.500000000000     0.354090000000     0.355410000000    -0.41384    
Oa       O      0.553790000000     0.328480000000     0.441350000000    -0.41384    
Si       Si     0.684990000000     0.000000000000     0.406840000000     0.78598    
Al       Al     0.590420000000     0.000000000000     0.312850000000     0.48598    
Oa       O      0.746630000000     0.000000000000     0.386330000000    -0.41384    
Oa       O      0.645910000000     0.000000000000     0.355410000000    -0.41384    
Oa       O      0.671520000000     0.053790000000     0.441350000000    -0.41384    
Si       Si     0.000000000000     0.184990000000     0.406840000000     0.78598    
Al       Al     0.000000000000     0.090420000000     0.312850000000     0.48598    
Oa       O      0.000000000000     0.246630000000     0.386330000000    -0.41384    
Oa       O      0.000000000000     0.145910000000     0.355410000000    -0.41384    
Oa       O      0.946210000000     0.171520000000     0.441350000000    -0.41384    
Si       Si     0.815010000000     0.500000000000     0.593160000000     0.78598    
Al       Al     0.909580000000     0.500000000000     0.687150000000     0.48598    
Oa       O      0.753370000000     0.500000000000     0.613670000000    -0.41384    
Oa       O      0.854090000000     0.500000000000     0.644590000000    -0.41384    
Oa       O      0.828480000000     0.553790000000     0.558650000000    -0.41384    
Si       Si     0.500000000000     0.315010000000     0.593160000000     0.78598    
Al       Al     0.500000000000     0.409580000000     0.687150000000     0.48598    
Oa       O      0.500000000000     0.253370000000     0.613670000000    -0.41384    
Oa       O      0.500000000000     0.354090000000     0.644590000000    -0.41384    
Oa       O      0.446210000000     0.328480000000     0.558650000000    -0.41384    
Si       Si     0.684990000000     0.000000000000     0.593160000000     0.78598    
Al       Al     0.590420000000     0.000000000000     0.687150000000     0.48598    
Oa       O      0.746630000000     0.000000000000     0.613670000000    -0.41384    
Oa       O      0.645910000000     0.000000000000     0.644590000000    -0.41384    
Oa       O      0.671520000000     0.946210000000     0.558650000000    -0.41384    
Si       Si     0.000000000000     0.184990000000     0.593160000000     0.78598    
Al       Al     0.000000000000     0.090420000000     0.687150000000     0.48598    
Oa       O      0.000000000000     0.246630000000     0.613670000000    -0.41384    
Oa       O      0.000000000000     0.145910000000     0.644590000000    -0.41384    
Oa       O      0.053790000000     0.171520000000     0.558650000000    -0.41384    
Oa       O      0.941350000000     0.328480000000     0.446210000000    -0.41384    
Si       Si     0.906840000000     0.184990000000     0.000000000000     0.78598    
Al       Al     0.812850000000     0.090420000000     0.000000000000     0.48598    
Oa       O      0.886330000000     0.246630000000     0.000000000000    -0.41384    
Oa       O      0.855410000000     0.145910000000     0.000000000000    -0.41384    
Oa       O      0.941350000000     0.171520000000     0.053790000000    -0.41384    
Si       Si     0.815010000000     0.406840000000     0.000000000000     0.78598    
Al       Al     0.909580000000     0.312850000000     0.000000000000     0.48598    
Oa       O      0.753370000000     0.386330000000     0.000000000000    -0.41384    
Oa       O      0.854090000000     0.355410000000     0.000000000000    -0.41384    
Oa       O      0.828480000000     0.441350000000     0.053790000000    -0.41384    
Si       Si     0.593160000000     0.315010000000     0.000000000000     0.78598    
Al       Al     0.687150000000     0.409580000000     0.000000000000     0.48598    
Oa       O      0.613670000000     0.253370000000     0.000000000000    -0.41384    
Oa       O      0.644590000000     0.354090000000     0.000000000000    -0.41384    
Oa       O      0.558650000000     0.328480000000     0.053790000000    -0.41384    
Si       Si     0.684990000000     0.593160000000     0.500000000000     0.78598    
Al       Al     0.590420000000     0.687150000000     0.500000000000     0.48598    
Oa       O      0.746630000000     0.613670000000     0.500000000000    -0.41384    
Oa       O      0.645910000000     0.644590000000     0.500000000000    -0.41384    
Oa       O      0.671520000000     0.558650000000     0.553790000000    -0.41384    
Oa       O      0.058650000000     0.671520000000     0.446210000000    -0.41384    
Si       Si     0.815010000000     0.593160000000     0.000000000000     0.78598    
Al       Al     0.909580000000     0.687150000000     0.000000000000     0.48598    
Oa       O      0.753370000000     0.613670000000     0.000000000000    -0.41384    
Oa       O      0.854090000000     0.644590000000     0.000000000000    -0.41384    
Oa       O      0.828480000000     0.558650000000     0.946210000000    -0.41384    
Si       Si     0.684990000000     0.906840000000     0.000000000000     0.78598    
Al       Al     0.590420000000     0.812850000000     0.000000000000     0.48598    
Oa       O      0.746630000000     0.886330000000     0.000000000000    -0.41384    
Oa       O      0.645910000000     0.855410000000     0.000000000000    -0.41384    
Oa       O      0.671520000000     0.941350000000     0.946210000000    -0.41384    
Si       Si     0.500000000000     0.093160000000     0.684990000000     0.78598    
Al       Al     0.500000000000     0.187150000000     0.590420000000     0.48598    
Oa       O      0.500000000000     0.113670000000     0.746630000000    -0.41384    
Oa       O      0.500000000000     0.144590000000     0.645910000000    -0.41384    
Oa       O      0.553790000000     0.058650000000     0.671520000000    -0.41384    
Si       Si     0.906840000000     0.000000000000     0.684990000000     0.78598    
Al       Al     0.812850000000     0.000000000000     0.590420000000     0.48598    
Oa       O      0.886330000000     0.000000000000     0.746630000000    -0.41384    
Oa       O      0.855410000000     0.000000000000     0.645910000000    -0.41384    
Oa       O      0.941350000000     0.053790000000     0.671520000000    -0.41384    
Si       Si     0.000000000000     0.406840000000     0.684990000000     0.78598    
Al       Al     0.000000000000     0.312850000000     0.590420000000     0.48598    
Oa       O      0.000000000000     0.386330000000     0.746630000000    -0.41384    
Oa       O      0.000000000000     0.355410000000     0.645910000000    -0.41384    
Oa       O      0.946210000000     0.441350000000     0.671520000000    -0.41384    
Si       Si     0.593160000000     0.500000000000     0.684990000000     0.78598    
Al       Al     0.687150000000     0.500000000000     0.590420000000     0.48598    
Oa       O      0.613670000000     0.500000000000     0.746630000000    -0.41384    
Oa       O      0.644590000000     0.500000000000     0.645910000000    -0.41384    
Oa       O      0.558650000000     0.446210000000     0.671520000000    -0.41384    
Si       Si     0.500000000000     0.906840000000     0.315010000000     0.78598    
Al       Al     0.500000000000     0.812850000000     0.409580000000     0.48598    
Oa       O      0.500000000000     0.886330000000     0.253370000000    -0.41384    
Oa       O      0.500000000000     0.855410000000     0.354090000000    -0.41384    
Oa       O      0.553790000000     0.941350000000     0.328480000000    -0.41384    
Si       Si     0.093160000000     0.000000000000     0.315010000000     0.78598    
Al       Al     0.187150000000     0.000000000000     0.409580000000     0.48598    
Oa       O      0.113670000000     0.000000000000     0.253370000000    -0.41384    
Oa       O      0.144590000000     0.000000000000     0.354090000000    -0.41384    
Oa       O      0.058650000000     0.053790000000     0.328480000000    -0.41384    
Si       Si     0.000000000000     0.593160000000     0.315010000000     0.78598    
Al       Al     0.000000000000     0.687150000000     0.409580000000     0.48598    
Oa       O      0.000000000000     0.613670000000     0.253370000000    -0.41384    
Oa       O      0.000000000000     0.644590000000     0.354090000000    -0.41384    
Oa       O      0.946210000000     0.558650000000     0.328480000000    -0.41384    
Si       Si     0.406840000000     0.500000000000     0.315010000000     0.78598    
Al       Al     0.312850000000     0.500000000000     0.409580000000     0.48598    
Oa       O      0.386330000000     0.500000000000     0.253370000000    -0.41384    
Oa       O      0.355410000000     0.500000000000     0.354090000000    -0.41384    
Oa       O      0.441350000000     0.446210000000     0.328480000000    -0.41384    
Oa       O      0.671520000000     0.053790000000     0.558650000000    -0.41384    
Oa       O      0.946210000000     0.171520000000     0.558650000000    -0.41384    
Oa       O      0.828480000000     0.446210000000     0.558650000000    -0.41384    
Oa       O      0.553790000000     0.328480000000     0.558650000000    -0.41384    
Oa       O      0.671520000000     0.946210000000     0.441350000000    -0.41384    
Oa       O      0.053790000000     0.171520000000     0.441350000000    -0.41384    
Oa       O      0.828480000000     0.553790000000     0.441350000000    -0.41384    
Oa       O      0.446210000000     0.328480000000     0.441350000000    -0.41384    
Si       Si     0.593160000000     0.184990000000     0.500000000000     0.78598    
Al       Al     0.687150000000     0.090420000000     0.500000000000     0.48598    
Oa       O      0.613670000000     0.246630000000     0.500000000000    -0.41384    
Oa       O      0.644590000000     0.145910000000     0.500000000000    -0.41384    
Oa       O      0.558650000000     0.171520000000     0.553790000000    -0.41384    
Oa       O      0.558650000000     0.328480000000     0.946210000000    -0.41384    
Oa       O      0.671520000000     0.058650000000     0.946210000000    -0.41384    
Oa       O      0.941350000000     0.171520000000     0.946210000000    -0.41384    
Oa       O      0.828480000000     0.941350000000     0.446210000000    -0.41384    
Si       Si     0.406840000000     0.815010000000     0.500000000000     0.78598    
Al       Al     0.312850000000     0.909580000000     0.500000000000     0.48598    
Oa       O      0.386330000000     0.753370000000     0.500000000000    -0.41384    
Oa       O      0.355410000000     0.854090000000     0.500000000000    -0.41384    
Oa       O      0.441350000000     0.828480000000     0.553790000000    -0.41384    
Oa       O      0.671520000000     0.941350000000     0.053790000000    -0.41384    
Oa       O      0.828480000000     0.558650000000     0.053790000000    -0.41384    
Oa       O      0.446210000000     0.941350000000     0.328480000000    -0.41384    
Oa       O      0.058650000000     0.946210000000     0.328480000000    -0.41384    
Oa       O      0.053790000000     0.558650000000     0.328480000000    -0.41384    
Oa       O      0.441350000000     0.553790000000     0.328480000000    -0.41384    
Oa       O      0.446210000000     0.058650000000     0.671520000000    -0.41384    
Oa       O      0.941350000000     0.946210000000     0.671520000000    -0.41384    
Oa       O      0.053790000000     0.441350000000     0.671520000000    -0.41384    
Oa       O      0.558650000000     0.553790000000     0.671520000000    -0.41384    
Oa       O      0.328480000000     0.946210000000     0.441350000000    -0.41384    
Oa       O      0.053790000000     0.828480000000     0.441350000000    -0.41384    
Oa       O      0.171520000000     0.553790000000     0.441350000000    -0.41384    
Oa       O      0.446210000000     0.671520000000     0.441350000000    -0.41384    
Oa       O      0.328480000000     0.053790000000     0.558650000000    -0.41384    
Oa       O      0.946210000000     0.828480000000     0.558650000000    -0.41384    
Oa       O      0.171520000000     0.446210000000     0.558650000000    -0.41384    
Oa       O      0.553790000000     0.671520000000     0.558650000000    -0.41384    
Oa       O      0.441350000000     0.828480000000     0.446210000000    -0.41384    
Oa       O      0.441350000000     0.671520000000     0.053790000000    -0.41384    
Oa       O      0.328480000000     0.941350000000     0.053790000000    -0.41384    
Oa       O      0.058650000000     0.828480000000     0.053790000000    -0.41384    
Oa       O      0.171520000000     0.058650000000     0.553790000000    -0.41384    
Oa       O      0.558650000000     0.171520000000     0.446210000000    -0.41384    
Oa       O      0.328480000000     0.058650000000     0.946210000000    -0.41384    
Oa       O      0.171520000000     0.441350000000     0.946210000000    -0.41384    
Si       Si     0.500000000000     0.593160000000     0.184990000000     0.78598    
Al       Al     0.500000000000     0.687150000000     0.090420000000     0.48598    
Oa       O      0.500000000000     0.613670000000     0.246630000000    -0.41384    
Oa       O      0.500000000000     0.644590000000     0.145910000000    -0.41384    
Oa       O      0.553790000000     0.558650000000     0.171520000000    -0.41384    
Si       Si     0.906840000000     0.500000000000     0.184990000000     0.78598    
Al       Al     0.812850000000     0.500000000000     0.090420000000     0.48598    
Oa       O      0.886330000000     0.500000000000     0.246630000000    -0.41384    
Oa       O      0.855410000000     0.500000000000     0.145910000000    -0.41384    
Oa       O      0.941350000000     0.553790000000     0.171520000000    -0.41384    
Si       Si     0.000000000000     0.906840000000     0.184990000000     0.78598    
Al       Al     0.000000000000     0.812850000000     0.090420000000     0.48598    
Oa       O      0.000000000000     0.886330000000     0.246630000000    -0.41384    
Oa       O      0.000000000000     0.855410000000     0.145910000000    -0.41384    
Oa       O      0.946210000000     0.941350000000     0.171520000000    -0.41384    
Si       Si     0.593160000000     0.000000000000     0.184990000000     0.78598    
Al       Al     0.687150000000     0.000000000000     0.090420000000     0.48598    
Oa       O      0.613670000000     0.000000000000     0.246630000000    -0.41384    
Oa       O      0.644590000000     0.000000000000     0.145910000000    -0.41384    
Oa       O      0.558650000000     0.946210000000     0.171520000000    -0.41384    
Si       Si     0.500000000000     0.406840000000     0.815010000000     0.78598    
Al       Al     0.500000000000     0.312850000000     0.909580000000     0.48598    
Oa       O      0.500000000000     0.386330000000     0.753370000000    -0.41384    
Oa       O      0.500000000000     0.355410000000     0.854090000000    -0.41384    
Oa       O      0.553790000000     0.441350000000     0.828480000000    -0.41384    
Si       Si     0.093160000000     0.500000000000     0.815010000000     0.78598    
Al       Al     0.187150000000     0.500000000000     0.909580000000     0.48598    
Oa       O      0.113670000000     0.500000000000     0.753370000000    -0.41384    
Oa       O      0.144590000000     0.500000000000     0.854090000000    -0.41384    
Oa       O      0.058650000000     0.553790000000     0.828480000000    -0.41384    
Si       Si     0.000000000000     0.093160000000     0.815010000000     0.78598    
Al       Al     0.000000000000     0.187150000000     0.909580000000     0.48598    
Oa       O      0.000000000000     0.113670000000     0.753370000000    -0.41384    
Oa       O      0.000000000000     0.144590000000     0.854090000000    -0.41384    
Oa       O      0.946210000000     0.058650000000     0.828480000000    -0.41384    
Si       Si     0.406840000000     0.000000000000     0.815010000000     0.78598    
Al       Al     0.312850000000     0.000000000000     0.909580000000     0.48598    
Oa       O      0.386330000000     0.000000000000     0.753370000000    -0.41384    
Oa       O      0.355410000000     0.000000000000     0.854090000000    -0.41384    
Oa       O      0.441350000000     0.946210000000     0.828480000000    -0.41384    
Oa       O      0.671520000000     0.553790000000     0.058650000000    -0.41384    
Oa       O      0.946210000000     0.671520000000     0.058650000000    -0.41384    
Oa       O      0.828480000000     0.946210000000     0.058650000000    -0.41384    
Oa       O      0.553790000000     0.828480000000     0.058650000000    -0.41384    
Oa       O      0.671520000000     0.446210000000     0.941350000000    -0.41384    
Oa       O      0.053790000000     0.671520000000     0.941350000000    -0.41384    
Oa       O      0.828480000000     0.053790000000     0.941350000000    -0.41384    
Oa       O      0.446210000000     0.828480000000     0.941350000000    -0.41384    
Si       Si     0.593160000000     0.684990000000     0.000000000000     0.78598    
Al       Al     0.687150000000     0.590420000000     0.000000000000     0.48598    
Oa       O      0.613670000000     0.746630000000     0.000000000000    -0.41384    
Oa       O      0.644590000000     0.645910000000     0.000000000000    -0.41384    
Oa       O      0.558650000000     0.671520000000     0.053790000000    -0.41384    
Oa       O      0.558650000000     0.828480000000     0.446210000000    -0.41384    
Oa       O      0.671520000000     0.558650000000     0.446210000000    -0.41384    
Oa       O      0.941350000000     0.671520000000     0.446210000000    -0.41384    
Oa       O      0.828480000000     0.441350000000     0.946210000000    -0.41384    
Si       Si     0.406840000000     0.315010000000     0.000000000000     0.78598    
Al       Al     0.312850000000     0.409580000000     0.000000000000     0.48598    
Oa       O      0.386330000000     0.253370000000     0.000000000000    -0.41384    
Oa       O      0.355410000000     0.354090000000     0.000000000000    -0.41384    
Oa       O      0.441350000000     0.328480000000     0.053790000000    -0.41384    
Oa       O      0.671520000000     0.441350000000     0.553790000000    -0.41384    
Oa       O      0.828480000000     0.058650000000     0.553790000000    -0.41384    
Oa       O      0.446210000000     0.441350000000     0.828480000000    -0.41384    
Oa       O      0.058650000000     0.446210000000     0.828480000000    -0.41384    
Oa       O      0.053790000000     0.058650000000     0.828480000000    -0.41384    
Oa       O      0.441350000000     0.053790000000     0.828480000000    -0.41384    
Oa       O      0.446210000000     0.558650000000     0.171520000000    -0.41384    
Oa       O      0.941350000000     0.446210000000     0.171520000000    -0.41384    
Oa       O      0.053790000000     0.941350000000     0.171520000000    -0.41384    
Oa       O      0.558650000000     0.053790000000     0.171520000000    -0.41384    
Oa       O      0.328480000000     0.446210000000     0.941350000000    -0.41384    
Oa       O      0.053790000000     0.328480000000     0.941350000000    -0.41384    
Oa       O      0.171520000000     0.053790000000     0.941350000000    -0.41384    
Oa       O      0.446210000000     0.171520000000     0.941350000000    -0.41384    
Oa       O      0.328480000000     0.553790000000     0.058650000000    -0.41384    
Oa       O      0.946210000000     0.328480000000     0.058650000000    -0.41384    
Oa       O      0.171520000000     0.946210000000     0.058650000000    -0.41384    
Oa       O      0.553790000000     0.171520000000     0.058650000000    -0.41384    
Oa       O      0.441350000000     0.328480000000     0.946210000000    -0.41384    
Oa       O      0.441350000000     0.171520000000     0.553790000000    -0.41384    
Oa       O      0.328480000000     0.441350000000     0.553790000000    -0.41384    
Oa       O      0.058650000000     0.328480000000     0.553790000000    -0.41384    
Oa       O      0.171520000000     0.558650000000     0.053790000000    -0.41384    
Oa       O      0.558650000000     0.671520000000     0.946210000000    -0.41384    
Oa       O      0.328480000000     0.558650000000     0.446210000000    -0.41384    
Oa       O      0.171520000000     0.941350000000     0.446210000000    -0.41384    


